# vtk DataFile Version 2.0
step 0 time 0.000000e+00 normalized time 0.000000e+00, generated by interactive_dg_advection_book_1D.py
ASCII
DATASET UNSTRUCTURED_GRID

POINTS 100 float
0.000000e+00 0.000000e+00 0.000000e+00
6.346652e-02 0.000000e+00 0.000000e+00
1.269330e-01 0.000000e+00 0.000000e+00
1.903996e-01 0.000000e+00 0.000000e+00
2.538661e-01 0.000000e+00 0.000000e+00
3.173326e-01 0.000000e+00 0.000000e+00
3.807991e-01 0.000000e+00 0.000000e+00
4.442656e-01 0.000000e+00 0.000000e+00
5.077321e-01 0.000000e+00 0.000000e+00
5.711987e-01 0.000000e+00 0.000000e+00
6.346652e-01 0.000000e+00 0.000000e+00
6.981317e-01 0.000000e+00 0.000000e+00
7.615982e-01 0.000000e+00 0.000000e+00
8.250647e-01 0.000000e+00 0.000000e+00
8.885313e-01 0.000000e+00 0.000000e+00
9.519978e-01 0.000000e+00 0.000000e+00
1.015464e+00 0.000000e+00 0.000000e+00
1.078931e+00 0.000000e+00 0.000000e+00
1.142397e+00 0.000000e+00 0.000000e+00
1.205864e+00 0.000000e+00 0.000000e+00
1.269330e+00 0.000000e+00 0.000000e+00
1.332797e+00 0.000000e+00 0.000000e+00
1.396263e+00 0.000000e+00 0.000000e+00
1.459730e+00 0.000000e+00 0.000000e+00
1.523196e+00 0.000000e+00 0.000000e+00
1.586663e+00 0.000000e+00 0.000000e+00
1.650129e+00 0.000000e+00 0.000000e+00
1.713596e+00 0.000000e+00 0.000000e+00
1.777063e+00 0.000000e+00 0.000000e+00
1.840529e+00 0.000000e+00 0.000000e+00
1.903996e+00 0.000000e+00 0.000000e+00
1.967462e+00 0.000000e+00 0.000000e+00
2.030929e+00 0.000000e+00 0.000000e+00
2.094395e+00 0.000000e+00 0.000000e+00
2.157862e+00 0.000000e+00 0.000000e+00
2.221328e+00 0.000000e+00 0.000000e+00
2.284795e+00 0.000000e+00 0.000000e+00
2.348261e+00 0.000000e+00 0.000000e+00
2.411728e+00 0.000000e+00 0.000000e+00
2.475194e+00 0.000000e+00 0.000000e+00
2.538661e+00 0.000000e+00 0.000000e+00
2.602127e+00 0.000000e+00 0.000000e+00
2.665594e+00 0.000000e+00 0.000000e+00
2.729060e+00 0.000000e+00 0.000000e+00
2.792527e+00 0.000000e+00 0.000000e+00
2.855993e+00 0.000000e+00 0.000000e+00
2.919460e+00 0.000000e+00 0.000000e+00
2.982926e+00 0.000000e+00 0.000000e+00
3.046393e+00 0.000000e+00 0.000000e+00
3.109859e+00 0.000000e+00 0.000000e+00
3.173326e+00 0.000000e+00 0.000000e+00
3.236792e+00 0.000000e+00 0.000000e+00
3.300259e+00 0.000000e+00 0.000000e+00
3.363725e+00 0.000000e+00 0.000000e+00
3.427192e+00 0.000000e+00 0.000000e+00
3.490659e+00 0.000000e+00 0.000000e+00
3.554125e+00 0.000000e+00 0.000000e+00
3.617592e+00 0.000000e+00 0.000000e+00
3.681058e+00 0.000000e+00 0.000000e+00
3.744525e+00 0.000000e+00 0.000000e+00
3.807991e+00 0.000000e+00 0.000000e+00
3.871458e+00 0.000000e+00 0.000000e+00
3.934924e+00 0.000000e+00 0.000000e+00
3.998391e+00 0.000000e+00 0.000000e+00
4.061857e+00 0.000000e+00 0.000000e+00
4.125324e+00 0.000000e+00 0.000000e+00
4.188790e+00 0.000000e+00 0.000000e+00
4.252257e+00 0.000000e+00 0.000000e+00
4.315723e+00 0.000000e+00 0.000000e+00
4.379190e+00 0.000000e+00 0.000000e+00
4.442656e+00 0.000000e+00 0.000000e+00
4.506123e+00 0.000000e+00 0.000000e+00
4.569589e+00 0.000000e+00 0.000000e+00
4.633056e+00 0.000000e+00 0.000000e+00
4.696522e+00 0.000000e+00 0.000000e+00
4.759989e+00 0.000000e+00 0.000000e+00
4.823455e+00 0.000000e+00 0.000000e+00
4.886922e+00 0.000000e+00 0.000000e+00
4.950388e+00 0.000000e+00 0.000000e+00
5.013855e+00 0.000000e+00 0.000000e+00
5.077321e+00 0.000000e+00 0.000000e+00
5.140788e+00 0.000000e+00 0.000000e+00
5.204254e+00 0.000000e+00 0.000000e+00
5.267721e+00 0.000000e+00 0.000000e+00
5.331188e+00 0.000000e+00 0.000000e+00
5.394654e+00 0.000000e+00 0.000000e+00
5.458121e+00 0.000000e+00 0.000000e+00
5.521587e+00 0.000000e+00 0.000000e+00
5.585054e+00 0.000000e+00 0.000000e+00
5.648520e+00 0.000000e+00 0.000000e+00
5.711987e+00 0.000000e+00 0.000000e+00
5.775453e+00 0.000000e+00 0.000000e+00
5.838920e+00 0.000000e+00 0.000000e+00
5.902386e+00 0.000000e+00 0.000000e+00
5.965853e+00 0.000000e+00 0.000000e+00
6.029319e+00 0.000000e+00 0.000000e+00
6.092786e+00 0.000000e+00 0.000000e+00
6.156252e+00 0.000000e+00 0.000000e+00
6.219719e+00 0.000000e+00 0.000000e+00
6.283185e+00 0.000000e+00 0.000000e+00

CELLS 99 297
2 0 1 
2 1 2 
2 2 3 
2 3 4 
2 4 5 
2 5 6 
2 6 7 
2 7 8 
2 8 9 
2 9 10 
2 10 11 
2 11 12 
2 12 13 
2 13 14 
2 14 15 
2 15 16 
2 16 17 
2 17 18 
2 18 19 
2 19 20 
2 20 21 
2 21 22 
2 22 23 
2 23 24 
2 24 25 
2 25 26 
2 26 27 
2 27 28 
2 28 29 
2 29 30 
2 30 31 
2 31 32 
2 32 33 
2 33 34 
2 34 35 
2 35 36 
2 36 37 
2 37 38 
2 38 39 
2 39 40 
2 40 41 
2 41 42 
2 42 43 
2 43 44 
2 44 45 
2 45 46 
2 46 47 
2 47 48 
2 48 49 
2 49 50 
2 50 51 
2 51 52 
2 52 53 
2 53 54 
2 54 55 
2 55 56 
2 56 57 
2 57 58 
2 58 59 
2 59 60 
2 60 61 
2 61 62 
2 62 63 
2 63 64 
2 64 65 
2 65 66 
2 66 67 
2 67 68 
2 68 69 
2 69 70 
2 70 71 
2 71 72 
2 72 73 
2 73 74 
2 74 75 
2 75 76 
2 76 77 
2 77 78 
2 78 79 
2 79 80 
2 80 81 
2 81 82 
2 82 83 
2 83 84 
2 84 85 
2 85 86 
2 86 87 
2 87 88 
2 88 89 
2 89 90 
2 90 91 
2 91 92 
2 92 93 
2 93 94 
2 94 95 
2 95 96 
2 96 97 
2 97 98 
2 98 99 

CELL_TYPES 99
3
3
3
3
3
3
3
3
3
3
3
3
3
3
3
3
3
3
3
3
3
3
3
3
3
3
3
3
3
3
3
3
3
3
3
3
3
3
3
3
3
3
3
3
3
3
3
3
3
3
3
3
3
3
3
3
3
3
3
3
3
3
3
3
3
3
3
3
3
3
3
3
3
3
3
3
3
3
3
3
3
3
3
3
3
3
3
3
3
3
3
3
3
3
3
3
3
3
3

POINT_DATA 100

SCALARS node_groups int 1
LOOKUP_TABLE default
0
0
0
0
0
0
0
0
0
0
0
0
0
0
0
0
0
0
0
0
0
0
0
0
0
0
0
0
0
0
0
0
0
0
0
0
0
0
0
0
0
0
0
0
0
0
0
0
0
0
0
0
0
0
0
0
0
0
0
0
0
0
0
0
0
0
0
0
0
0
0
0
0
0
0
0
0
0
0
0
0
0
0
0
0
0
0
0
0
0
0
0
0
0
0
0
0
0
0
0

CELL_DATA 99
SCALARS mat_id int 1
LOOKUP_TABLE default
0
0
0
0
0
0
0
0
0
0
0
0
0
0
0
0
0
0
0
0
0
0
0
0
0
0
0
0
0
0
0
0
0
0
0
0
0
0
0
0
0
0
0
0
0
0
0
0
0
0
0
0
0
0
0
0
0
0
0
0
0
0
0
0
0
0
0
0
0
0
0
0
0
0
0
0
0
0
0
0
0
0
0
0
0
0
0
0
0
0
0
0
0
0
0
0
0
0
0
